<?xml version="1.0" encoding="UTF-8"?>

<!-- generated on Thu Aug  3 00:13:07 2023 by Eclipse SUMO sumo Version 1.8.0
<configuration xmlns:xsi="http://www.w3.org/2001/XMLSchema-instance" xsi:noNamespaceSchemaLocation="http://sumo.dlr.de/xsd/sumoConfiguration.xsd">

    <input>
        <net-file value="/home/user/sumo-map/istanbul-v1/istanbul-v1.net.xml"/>
        <route-files value="/home/user/sumo-map/istanbul-v1/istanbul-v1_pt.trips.xml"/>
        <additional-files value="/home/user/sumo-map/istanbul-v1/istanbul-v1_stops.add.xml"/>
    </input>

    <output>
        <vehroute-output value="/home/user/sumo-map/istanbul-v1/istanbul-v1_pt.vehroutes.xml"/>
        <stop-output value="/home/user/sumo-map/istanbul-v1/istanbul-v1_pt.stopinfos.xml"/>
    </output>

    <time>
        <begin value="0"/>
    </time>

    <processing>
        <ignore-route-errors value="true"/>
    </processing>

    <routing>
        <device.rerouting.adaptation-interval value="0"/>
    </routing>

    <report>
        <error-log value="/home/user/sumo-map/istanbul-v1/istanbul-v1_pt.trips.xml.errorlog"/>
        <no-step-log value="true"/>
    </report>

</configuration>
-->

<routes xmlns:xsi="http://www.w3.org/2001/XMLSchema-instance" xsi:noNamespaceSchemaLocation="http://sumo.dlr.de/xsd/routes_file.xsd">
    <vehicle id="1_bus_47Ç:0" type="pt_bus" depart="48.00" departLane="0" arrival="79.00">
        <route edges="1006582996"/>
        <stop busStop="5115237221" duration="30.00"/>
    </vehicle>

    <vehicle id="0_bus_77A:0" type="pt_bus" depart="26.00" departLane="0" arrival="256.00">
        <route edges="1066826599 5169941 91264112 1121082741 931813833 91264113 1066826596 5169943 23276976 23276954 23276954.77 23639745#0 23639745#1 23639745#2 753363621 1064645868 23236954-AddedOnRampEdge 23236954 28585058#0 1120744123#2 1064645867 23236879 826449813 827063322#0 827063322#1 827063322#1.69 23276957"/>
    </vehicle>

    <vehicle id="6_bus_EM2:0" type="pt_bus" depart="239.00" departLane="0" arrival="270.00">
        <route edges="1006582996"/>
        <stop busStop="5115237221" duration="30.00"/>
    </vehicle>

    <vehicle id="5_bus_EM1:0" type="pt_bus" depart="193.00" departLane="0" arrival="608.00">
        <route edges="23236930#0 23236930#2 23236929#0 826449813 23639695 23639778 5170334#0 5170334#1 1112371617#0 1112371611#0 1112371614 1164913793 1164913795 1164913794#0 1164913794#2 1164913794#3 25539026#0 827063324 5169873 91264144 827063326 931813831 910632857 1006582996 1181770075 1181770075.112 1181770075.209 1181770075.209.153 91264122 23276976 23276954 23276954.77 23639745#0 23639745#1 23639745#2 23236898 885823655#0 885823655#1 885823655#4 885823655#6 885823655#7 35411077#1 35411077#2 35411077#3"/>
        <stop busStop="5115237221" duration="30.00"/>
    </vehicle>

    <vehicle id="2_bus_70KE:0" type="pt_bus" depart="92.00" departLane="0" arrival="650.00">
        <route edges="43915455#0 837903918#0 837903918#11 837903918#11.71 837903918#13 42141136#0 1160053324#0 1160053324#2 1160053324#3 1160053324#6 443790676#0 443790676#1 443790676#2 443790676#3 443790676#4 1150725755#0 827063324 5169873 91264144 827063326 931813831 910632857 1006582996 1181770075 1181770075.112 1181770075.209 1181770075.209.153 91264122 23276976 23276966#0 5170334#0 5170334#1 1112371617#0 1112371611#0 1112371614 1164913793 1164913795 1164913794#0 1164913794#2 1164913794#3 183743129#0 1107348164#0 42141138#0 42141138#1 42141138#3 42141138#4 42141138#5 42141138#6 42141138#8 669715186#0 669715186#1 669715186#2 669715186#4 669715186#5 669715186#6 669715186#7 669715186#8 669715186#10 886025395#0 1035804753#0 158452644#1 837903919#0"/>
        <stop busStop="5115237221" duration="30.00"/>
    </vehicle>

    <vehicle id="8_bus_28:0" type="pt_bus" depart="298.00" departLane="1" arrival="915.00">
        <route edges="43915455#0 837903918#0 837903918#11 837903918#11.71 837903918#13 42141136#0 1160053324#0 1160053324#2 1160053324#3 1160053324#6 443790676#0 443790676#1 443790676#2 443790676#3 443790676#4 1150725755#0 827063324 5169873 91264144 827063326 931813831 910632857 1006582996 1181770075 1181770075.112 1181770075.209 1181770075.209.153 91264122 23276976 23276966#0 5170334#0 5170334#1 1112371617#0 1112371611#0 1112371614 1164913793 1164913795 1164913794#0 1164913794#2 1164913794#3 183743129#0 1107348164#0 42141138#0 42141138#1 42141138#3 42141138#4 42141138#5 42141138#6 42141138#8 669715186#0 669715186#1 669715186#2 669715186#4 669715186#5 669715186#6 669715186#7 669715186#8 669715186#10 886025395#0 1035804753#0 158452644#1 837903919#0"/>
        <stop busStop="5115237221" duration="30.00"/>
    </vehicle>

    <vehicle id="7_bus_26:0" type="pt_bus" depart="266.00" departLane="0" arrival="916.00">
        <route edges="43915455#0 837903918#0 837903918#11 837903918#11.71 837903918#13 42141136#0 1160053324#0 1160053324#2 1160053324#3 1160053324#6 443790676#0 443790676#1 443790676#2 443790676#3 443790676#4 1150725755#0 827063324 5169873 91264144 827063326 931813831 910632857 1006582996 1181770075 1181770075.112 1181770075.209 1181770075.209.153 91264122 23276976 23276966#0 5170334#0 5170334#1 1112371617#0 1112371611#0 1112371614 1164913793 1164913795 1164913794#0 1164913794#2 1164913794#3 183743129#0 1107348164#0 42141138#0 42141138#1 42141138#3 42141138#4 42141138#5 42141138#6 42141138#8 669715186#0 669715186#1 669715186#2 669715186#4 669715186#5 669715186#6 669715186#7 669715186#8 669715186#10 886025395#0 1035804753#0 158452644#1 837903919#0"/>
        <stop busStop="5115237221" duration="30.00"/>
    </vehicle>

</routes>
